ITEM: TIME
1.2
ITEM: TIMESTEP
6000
ITEM: NUMBER OF ATOMS
442368
ITEM: BOX BOUNDS pp pp pp
-4.2477281465812666e-01 1.7394477281465862e+02
-4.2065964623969876e-01 1.7394065964623931e+02
-4.2917436523003971e-01 1.7394917436522744e+02
ITEM: ATOMS id type element mass x y z vx vy vz
1 1 Cu1 63.55 173.919 -0.368474 -0.425633 0.47397 -0.215569 4.752
2 2 Cu2 63.55 1.51811 1.4525 -0.425971 -1.96235 -3.07269 1.73004
3 3 Cu3 63.55 1.26684 173.931 1.35864 -2.03316 -3.57786 2.42286
4 4 Cu4 63.55 173.873 1.39935 1.28388 -0.525826 -2.14702 1.80619
5 1 Cu1 63.55 3.30776 -0.359144 -0.425034 -0.37679 -0.0678606 1.2439
6 2 Cu2 63.55 5.17129 1.41692 173.888 1.21098 -1.7913 -0.650029
7 3 Cu3 63.55 5.01412 -0.384433 1.20023 -2.23295 3.05539 -2.06506
8 4 Cu4 63.55 3.17823 1.49608 1.42696 -0.776744 -0.7499 -0.898675
9 1 Cu1 63.55 7.07204 -0.395983 173.809 0.357696 1.43912 0.425298
10 2 Cu2 63.55 8.71582 1.49688 173.878 -4.26947 2.81742 -1.02631
11 3 Cu3 63.55 8.85297 173.925 1.41187 -2.21811 -0.26648 0.803142
12 4 Cu4 63.55 6.99771 1.33382 1.32447 -2.07346 1.72828 2.3758
13 1 Cu1 63.55 10.484 -0.327936 173.87 -2.05838 -0.259079 2.11151
14 2 Cu2 63.55 12.2876 1.46089 -0.266833 -1.65925 -4.02382 -3.60264
15 3 Cu3 63.55 12.2547 -0.404169 1.43189 -0.138718 1.53682 0.479794
16 4 Cu4 63.55 10.3567 1.53308 1.27667 0.648695 -1.2908 -0.526441
